 Gaussian 16, Revision A.03,
 Gaussian 16:  AM64L-G16RevA.03 25-Dec-2016

 ----------------------------------------------------------------------
 #P LC-wHPBE/Def2SVP iop(3/107=0156500000, 3/108=0156500000) opt scf(ma
 xcyc=512)
 ----------------------------------------------------------------------

 -------
 H14 C12
 -------
 Symbolic Z-matrix:
 Charge =  0 Multiplicity = 1

 SCF Done:  E(RLC-wHPBE) =  -464.860035042     A.U. after   14 cycles
 SCF Done:  E(RLC-wHPBE) =  -464.882543666     A.U. after   13 cycles
 SCF Done:  E(RLC-wHPBE) =  -464.886160692     A.U. after   13 cycles
 SCF Done:  E(RLC-wHPBE) =  -464.888064571     A.U. after   13 cycles
 SCF Done:  E(RLC-wHPBE) =  -464.889918037     A.U. after   13 cycles
 SCF Done:  E(RLC-wHPBE) =  -464.891350225     A.U. after   13 cycles
 SCF Done:  E(RLC-wHPBE) =  -464.891997822     A.U. after   13 cycles
 SCF Done:  E(RLC-wHPBE) =  -464.892262383     A.U. after   12 cycles
 SCF Done:  E(RLC-wHPBE) =  -464.892376119     A.U. after   12 cycles
 SCF Done:  E(RLC-wHPBE) =  -464.892383503     A.U. after   10 cycles
 SCF Done:  E(RLC-wHPBE) =  -464.892387983     A.U. after   11 cycles
 SCF Done:  E(RLC-wHPBE) =  -464.892388131     A.U. after    8 cycles
 SCF Done:  E(RLC-wHPBE) =  -464.892388551     A.U. after    8 cycles
 SCF Done:  E(RLC-wHPBE) =  -464.892388592     A.U. after    7 cycles
 Optimization completed.
    -- Stationary point found.

                         Standard orientation:
 ---------------------------------------------------------------------
 Center     Atomic      Atomic             Coordinates (Angstroms)
 Number     Number       Type             X           Y           Z
 ---------------------------------------------------------------------
      1          6           0       -1.285944   -1.105792   -0.478809
      2          6           0       -0.608633   -0.017007   -0.040956
      3          6           0        0.882719   -0.006490   -0.010879
      4          6           0        1.623339    1.144042   -0.357590
      5          6           0        3.023834    1.135394   -0.347368
      6          6           0        3.721431   -0.023156    0.019677
      7          6           0        3.003164   -1.172041    0.378712
      8          6           0        1.603422   -1.160684    0.367566
      9          6           0       -1.345956    1.214437    0.452849
     10          6           0       -2.832684    1.218216    0.080556
     11          6           0       -3.470926   -0.146224    0.353206
     12          6           0       -2.786719   -1.232590   -0.483168
     13          1           0       -0.713144   -1.959499   -0.877785
     14          1           0        1.097137    2.060345   -0.662761
     15          1           0        3.575330    2.043719   -0.632685
     16          1           0        4.821320   -0.028604    0.032522
     17          1           0        3.538002   -2.084226    0.682942
     18          1           0        1.047482   -2.057191    0.679231
     19          1           0       -1.224297    1.277449    1.557832
     20          1           0       -0.857380    2.129982    0.061343
     21          1           0       -2.940401    1.459576   -0.999196
     22          1           0       -3.360291    2.019851    0.635464
     23          1           0       -3.362303   -0.388836    1.432394
     24          1           0       -4.559185   -0.124506    0.143448
     25          1           0       -3.151937   -1.193752   -1.535246
     26          1           0       -3.072607   -2.242939   -0.120289
 ---------------------------------------------------------------------

 The electronic state is 1-A.
 Alpha  occ. eigenvalues --   -9.99485  -9.98902  -9.98853  -9.98815  -9.98764
 Alpha  occ. eigenvalues --   -9.98752  -9.98742  -9.98733  -9.98630  -9.98383
 Alpha  occ. eigenvalues --   -9.98351  -9.98048  -0.86308  -0.83851  -0.78040
 Alpha  occ. eigenvalues --   -0.75601  -0.74836  -0.72684  -0.64675  -0.63545
 Alpha  occ. eigenvalues --   -0.61286  -0.60154  -0.55418  -0.53507  -0.50806
 Alpha  occ. eigenvalues --   -0.49003  -0.48382  -0.46572  -0.46194  -0.45030
 Alpha  occ. eigenvalues --   -0.44495  -0.43547  -0.42201  -0.41489  -0.40637
 Alpha  occ. eigenvalues --   -0.38561  -0.37763  -0.36511  -0.35605  -0.34687
 Alpha  occ. eigenvalues --   -0.31950  -0.30287  -0.26886
 Alpha virt. eigenvalues --    0.01917   0.03692   0.08126   0.10541   0.11823
 Alpha virt. eigenvalues --    0.13425   0.13783   0.15646   0.16229   0.17366
 Alpha virt. eigenvalues --    0.18234   0.18493   0.18744   0.19409   0.20128

 Mulliken charges:
               1
     1  C   -0.122111
     2  C   -0.076656
     3  C    0.067519
     4  C   -0.034575
     5  C    0.001676
     6  C    0.005511
     7  C    0.004090
     8  C   -0.028001
     9  C    0.056979
    10  C   -0.028533
    11  C   -0.025448
    12  C    0.044609
    13  H   -0.000722
    14  H   -0.012765
    15  H   -0.004623
    16  H   -0.002915
    17  H   -0.004059
    18  H   -0.010522
    19  H    0.028440
    20  H    0.022589
    21  H    0.019947
    22  H    0.014600
    23  H    0.019964
    24  H    0.014856
    25  H    0.027857
    26  H    0.022294
 Sum of Mulliken charges =  -0.00000

 Dipole moment (field-independent basis, Debye):
    X=             -0.5542    Y=              0.0989    Z=              0.0551  Tot=              0.5657
 Quadrupole moment (field-independent basis, Debye-Ang):
   XX=            -67.5187   YY=            -68.5149   ZZ=            -75.3010
   XY=              0.1925   XZ=              0.1652   YZ=             -1.1920

 Normal termination of Gaussian 16 at Wed Oct 13 12:09:30 2021.
