 Gaussian 16, Revision A.03,
 Gaussian 16:  ES64L-G16RevA.03 25-Dec-2016

 ----------------------------------------------------------------------
 #P LC-wHPBE/Def2SVP iop(3/107=0156500000, 3/108=0156500000) opt scf(ma
 xcyc=512)
 ----------------------------------------------------------------------

 -------
 H10 C14
 -------
 Symbolic Z-matrix:
 Charge =  0 Multiplicity = 1

 SCF Done:  E(RLC-wHPBE) =  -538.575950657     A.U. after   14 cycles
 SCF Done:  E(RLC-wHPBE) =  -538.604335788     A.U. after   14 cycles
 SCF Done:  E(RLC-wHPBE) =  -538.605907558     A.U. after   13 cycles
 SCF Done:  E(RLC-wHPBE) =  -538.605970698     A.U. after   10 cycles
 SCF Done:  E(RLC-wHPBE) =  -538.605976254     A.U. after    9 cycles
 Optimization completed.
    -- Stationary point found.

                         Standard orientation:
 ---------------------------------------------------------------------
 Center     Atomic      Atomic             Coordinates (Angstroms)
 Number     Number       Type             X           Y           Z
 ---------------------------------------------------------------------
      1          6           0        3.676656   -0.714935   -0.000000
      2          6           0        3.676690    0.714834   -0.000000
      3          6           0        2.489464    1.411883   -0.000000
      4          6           0        1.229278    0.724045    0.000000
      5          6           0        0.000004    1.408277    0.000000
      6          6           0       -1.229396    0.724084    0.000000
      7          6           0       -2.489417    1.411907    0.000000
      8          6           0       -3.676677    0.714716    0.000000
      9          6           0       -3.676682   -0.714835   -0.000000
     10          6           0       -2.489285   -1.411843   -0.000000
     11          6           0       -1.229259   -0.724008    0.000000
     12          6           0        0.000048   -1.408328    0.000000
     13          6           0        1.229279   -0.723861    0.000000
     14          6           0        2.489347   -1.411893    0.000000
     15          1           0        4.634018   -1.256556    0.000000
     16          1           0        4.634033    1.256485   -0.000000
     17          1           0        2.486862    2.512482    0.000000
     18          1           0       -0.000015    2.509553    0.000000
     19          1           0       -2.486992    2.512476   -0.000000
     20          1           0       -4.633997    1.256467   -0.000000
     21          1           0       -4.633907   -1.256670    0.000000
     22          1           0       -2.487009   -2.512449   -0.000001
     23          1           0       -0.000053   -2.509552    0.000000
     24          1           0        2.486753   -2.512488    0.000000
 ---------------------------------------------------------------------

 The electronic state is 1-A.
 Alpha  occ. eigenvalues --  -10.00073 -10.00072 -10.00069 -10.00065  -9.99443
 Alpha  occ. eigenvalues --   -9.99439  -9.99438  -9.99437  -9.99437  -9.99420
 Alpha  occ. eigenvalues --   -9.99412  -9.99411  -9.99410  -9.99409  -0.88666
 Alpha  occ. eigenvalues --   -0.85717  -0.81103  -0.79314  -0.76270  -0.75164
 Alpha  occ. eigenvalues --   -0.71687  -0.66551  -0.63816  -0.62577  -0.61411
 Alpha  occ. eigenvalues --   -0.56516  -0.55533  -0.53781  -0.49712  -0.49361
 Alpha  occ. eigenvalues --   -0.48350  -0.48345  -0.45946  -0.44946  -0.44897
 Alpha  occ. eigenvalues --   -0.44422  -0.42638  -0.41441  -0.41388  -0.38563
 Alpha  occ. eigenvalues --   -0.37497  -0.36617  -0.35836  -0.35306  -0.31312
 Alpha  occ. eigenvalues --   -0.29552  -0.25008
 Alpha virt. eigenvalues --   -0.02855   0.01970   0.04003   0.07411   0.09746
 Alpha virt. eigenvalues --    0.11476   0.11802   0.12432   0.15384   0.15427
 Alpha virt. eigenvalues --    0.17736   0.18021   0.18077   0.19517   0.19722

 Mulliken charges:
               1
     1  C    0.007778
     2  C    0.007798
     3  C   -0.013711
     4  C    0.075027
     5  C   -0.079698
     6  C    0.074967
     7  C   -0.013762
     8  C    0.007796
     9  C    0.007839
    10  C   -0.013895
    11  C    0.074981
    12  C   -0.079600
    13  C    0.074856
    14  C   -0.013713
    15  H   -0.000715
    16  H   -0.000715
    17  H   -0.014608
    18  H   -0.027683
    19  H   -0.014619
    20  H   -0.000713
    21  H   -0.000730
    22  H   -0.014602
    23  H   -0.027682
    24  H   -0.014597
 Sum of Mulliken charges =  -0.00000

 Dipole moment (field-independent basis, Debye):
    X=             -0.0001    Y=             -0.0003    Z=             -0.0000  Tot=              0.0003
 Quadrupole moment (field-independent basis, Debye-Ang):
   XX=            -70.8004   YY=            -71.5654   ZZ=            -87.0561
   XY=              0.0004   XZ=              0.0000   YZ=              0.0000

 Normal termination of Gaussian 16 at Tue May 10 16:52:28 2022.
