 Gaussian 16, Revision A.03,
 Gaussian 16:  AM64L-G16RevA.03 25-Dec-2016

 ----------------------------------------------------------------------
 #P LC-wHPBE/Def2SVP iop(3/107=0301200000, 3/108=0301200000) opt scf(ma
 xcyc=512)
 ----------------------------------------------------------------------

 -----
 H6 C6
 -----
 Symbolic Z-matrix:
 Charge =  0 Multiplicity = 1

 SCF Done:  E(RLC-wHPBE) =  -231.887893657     A.U. after   12 cycles
 SCF Done:  E(RLC-wHPBE) =  -231.891478575     A.U. after   12 cycles
 SCF Done:  E(RLC-wHPBE) =  -231.891574161     A.U. after   10 cycles
 SCF Done:  E(RLC-wHPBE) =  -231.891584400     A.U. after   10 cycles
 Optimization completed.
    -- Stationary point found.

                         Standard orientation:
 ---------------------------------------------------------------------
 Center     Atomic      Atomic             Coordinates (Angstroms)
 Number     Number       Type             X           Y           Z
 ---------------------------------------------------------------------
      1          6           0        0.827821    1.123431   -0.000000
      2          6           0       -0.559208    1.278559   -0.000000
      3          6           0       -1.386911    0.155226   -0.000000
      4          6           0       -0.827688   -1.123585    0.000000
      5          6           0        0.559010   -1.278570   -0.000000
      6          6           0        1.386979   -0.154998    0.000000
      7          1           0        1.477719    2.006502    0.000000
      8          1           0       -0.998223    2.283256   -0.000000
      9          1           0       -2.476612    0.276521    0.000000
     10          1           0       -1.478029   -2.006337   -0.000000
     11          1           0        0.998574   -2.283074    0.000000
     12          1           0        2.476551   -0.277249   -0.000000
 ---------------------------------------------------------------------

 The electronic state is 1-A.
 Alpha  occ. eigenvalues --  -10.07057 -10.07051 -10.07051 -10.07027 -10.07026
 Alpha  occ. eigenvalues --  -10.07025  -0.94614  -0.83642  -0.83641  -0.69411
 Alpha  occ. eigenvalues --   -0.69408  -0.62233  -0.54866  -0.54262  -0.51366
 Alpha  occ. eigenvalues --   -0.51363  -0.47772  -0.43202  -0.43200  -0.34614
 Alpha  occ. eigenvalues --   -0.34614
 Alpha virt. eigenvalues --    0.06693   0.06695   0.14093   0.18473   0.18474
 Alpha virt. eigenvalues --    0.22431   0.22433   0.24149   0.24480   0.37483
 Alpha virt. eigenvalues --    0.37484   0.38563   0.38565   0.45588   0.50158

 Mulliken charges:
               1
     1  C   -0.012920
     2  C   -0.012874
     3  C   -0.012908
     4  C   -0.012910
     5  C   -0.012997
     6  C   -0.012837
     7  H    0.012909
     8  H    0.012904
     9  H    0.012910
    10  H    0.012910
    11  H    0.012914
    12  H    0.012900
 Sum of Mulliken charges =  -0.00000

 Dipole moment (field-independent basis, Debye):
    X=             -0.0000    Y=             -0.0001    Z=              0.0000  Tot=              0.0001
 Quadrupole moment (field-independent basis, Debye-Ang):
   XX=            -31.6841   YY=            -31.6837   ZZ=            -39.1120
   XY=              0.0001   XZ=              0.0000   YZ=              0.0000

 Normal termination of Gaussian 16 at Thu Mar  3 14:52:53 2022.
