 Gaussian 16, Revision A.03,
 Gaussian 16:  ES64L-G16RevA.03 25-Dec-2016

 ----------------------------------------------------------------------
 #P LC-wHPBE/Def2SVP iop(3/107=0319800000, 3/108=0319800000) opt scf(ma
 xcyc=512)
 ----------------------------------------------------------------------

 -----------
 H5 C6 N1 O2
 -----------
 Symbolic Z-matrix:
 Charge =  0 Multiplicity = 1

 SCF Done:  E(RLC-wHPBE) =  -436.084775767     A.U. after   17 cycles
 SCF Done:  E(RLC-wHPBE) =  -436.115039840     A.U. after   16 cycles
 SCF Done:  E(RLC-wHPBE) =  -436.117668608     A.U. after   15 cycles
 SCF Done:  E(RLC-wHPBE) =  -436.118266241     A.U. after   14 cycles
 SCF Done:  E(RLC-wHPBE) =  -436.118322776     A.U. after   12 cycles
 SCF Done:  E(RLC-wHPBE) =  -436.118320421     A.U. after   11 cycles
 SCF Done:  E(RLC-wHPBE) =  -436.118311802     A.U. after   11 cycles
 SCF Done:  E(RLC-wHPBE) =  -436.118324609     A.U. after   11 cycles
 SCF Done:  E(RLC-wHPBE) =  -436.118327909     A.U. after   10 cycles
 Optimization completed.
    -- Stationary point found.

                         Standard orientation:
 ---------------------------------------------------------------------
 Center     Atomic      Atomic             Coordinates (Angstroms)
 Number     Number       Type             X           Y           Z
 ---------------------------------------------------------------------
      1          8           0        2.281674   -1.076156    0.000014
      2          7           0        1.723016    0.000001   -0.000001
      3          8           0        2.281564    1.076203   -0.000013
      4          6           0        0.242032   -0.000023    0.000000
      5          6           0       -0.425722    1.218594    0.000005
      6          6           0       -1.817822    1.210638    0.000005
      7          6           0       -2.511315   -0.000006   -0.000000
      8          6           0       -1.817822   -1.210651   -0.000005
      9          6           0       -0.425739   -1.218622   -0.000005
     10          1           0        0.154707    2.144805    0.000008
     11          1           0       -2.365704    2.158702    0.000010
     12          1           0       -3.606679    0.000114   -0.000000
     13          1           0       -2.365671   -2.158727   -0.000010
     14          1           0        0.154653   -2.144863   -0.000008
 ---------------------------------------------------------------------

 The electronic state is 1-A.
 Alpha  occ. eigenvalues --  -18.96138 -18.96134 -14.40889 -10.14219 -10.11243
 Alpha  occ. eigenvalues --  -10.11240 -10.11097 -10.10893 -10.10892  -1.32475
 Alpha  occ. eigenvalues --   -1.14937  -0.99949  -0.91294  -0.87876  -0.80341
 Alpha  occ. eigenvalues --   -0.73788  -0.69784  -0.66564  -0.66026  -0.61425
 Alpha  occ. eigenvalues --   -0.61337  -0.57871  -0.56661  -0.55109  -0.51299
 Alpha  occ. eigenvalues --   -0.48782  -0.46826  -0.41223  -0.40750  -0.39219
 Alpha  occ. eigenvalues --   -0.38216  -0.37874
 Alpha virt. eigenvalues --   -0.01138   0.04134   0.07936   0.13210   0.17527
 Alpha virt. eigenvalues --    0.18739   0.22591   0.22844   0.22853   0.25647
 Alpha virt. eigenvalues --    0.34177   0.35251   0.35652   0.35935   0.38610

 Mulliken charges:
               1
     1  O   -0.219496
     2  N    0.212534
     3  O   -0.219491
     4  C    0.113314
     5  C   -0.021405
     6  C   -0.021107
     7  C    0.021856
     8  C   -0.021080
     9  C   -0.021417
    10  H    0.042093
    11  H    0.031058
    12  H    0.029996
    13  H    0.031056
    14  H    0.042089
 Sum of Mulliken charges =  -0.00000

 Dipole moment (field-independent basis, Debye):
    X=             -4.2077    Y=              0.0000    Z=             -0.0000  Tot=              4.2077
 Quadrupole moment (field-independent basis, Debye-Ang):
   XX=            -53.9147   YY=            -47.5391   ZZ=            -52.1119
   XY=             -0.0002   XZ=             -0.0000   YZ=              0.0001

 Normal termination of Gaussian 16 at Tue May 10 16:43:19 2022.
