 Gaussian 16, Revision A.03,
 Gaussian 16:  ES64L-G16RevA.03 25-Dec-2016

 ----------------------------------------------------------------------
 #P LC-wHPBE/Def2SVP iop(3/107=0156500000, 3/108=0156500000) td=(50-50,
 nstates=15)
 ----------------------------------------------------------------------

 -------
 H14 C12
 -------
 Symbolic Z-matrix:
 Charge =  0 Multiplicity = 1

                         Standard orientation:
 ---------------------------------------------------------------------
 Center     Atomic      Atomic             Coordinates (Angstroms)
 Number     Number       Type             X           Y           Z
 ---------------------------------------------------------------------
      1          6           0       -1.285944   -1.105792   -0.478809
      2          6           0       -0.608633   -0.017007   -0.040956
      3          6           0        0.882719   -0.006490   -0.010879
      4          6           0        1.623339    1.144042   -0.357590
      5          6           0        3.023834    1.135394   -0.347368
      6          6           0        3.721431   -0.023156    0.019677
      7          6           0        3.003164   -1.172041    0.378712
      8          6           0        1.603422   -1.160684    0.367566
      9          6           0       -1.345956    1.214437    0.452849
     10          6           0       -2.832684    1.218216    0.080556
     11          6           0       -3.470926   -0.146224    0.353206
     12          6           0       -2.786719   -1.232590   -0.483168
     13          1           0       -0.713144   -1.959499   -0.877785
     14          1           0        1.097137    2.060345   -0.662761
     15          1           0        3.575330    2.043719   -0.632685
     16          1           0        4.821320   -0.028604    0.032522
     17          1           0        3.538002   -2.084226    0.682942
     18          1           0        1.047482   -2.057191    0.679231
     19          1           0       -1.224297    1.277449    1.557832
     20          1           0       -0.857380    2.129982    0.061343
     21          1           0       -2.940401    1.459576   -0.999196
     22          1           0       -3.360291    2.019851    0.635464
     23          1           0       -3.362303   -0.388836    1.432394
     24          1           0       -4.559185   -0.124506    0.143448
     25          1           0       -3.151937   -1.193752   -1.535246
     26          1           0       -3.072607   -2.242939   -0.120289
 ---------------------------------------------------------------------

 SCF Done:  E(RLC-wHPBE) =  -464.892388592     A.U. after   14 cycles

 Excitation energies and oscillator strengths:

 Excited State   1:      Triplet-A      3.2213 eV  384.89 nm  f=0.0000  <S**2>=2.000
      41 -> 46        -0.16195
      42 -> 45         0.16955
      43 -> 44         0.65396
      43 -> 46         0.12801
 This state for optimization and/or second-order correction.
 Total Energy, E(TD-HF/TD-DFT) =  -464.774008598
 Copying the excited state density for this state as the 1-particle RhoCI density.

 Excited State   2:      Triplet-A      4.0395 eV  306.93 nm  f=0.0000  <S**2>=2.000
      41 -> 44         0.37540
      42 -> 45         0.48402
      43 -> 46        -0.32353

 Excited State   3:      Triplet-A      4.3101 eV  287.66 nm  f=0.0000  <S**2>=2.000
      41 -> 45         0.22852
      42 -> 44         0.30531
      43 -> 45         0.58869

 Excited State   4:      Triplet-A      4.5895 eV  270.15 nm  f=0.0000  <S**2>=2.000
      41 -> 44        -0.37667
      42 -> 45         0.48295
      43 -> 44        -0.16907
      43 -> 46         0.29984

 Excited State   5:      Triplet-A      4.6785 eV  265.01 nm  f=0.0000  <S**2>=2.000
      42 -> 44         0.61572
      42 -> 46        -0.13645
      43 -> 45        -0.30183

 Excited State   6:      Singlet-A      4.8348 eV  256.44 nm  f=0.0127  <S**2>=0.000
      42 -> 44        -0.37673
      43 -> 44         0.16017
      43 -> 45         0.56187

 Excited State   7:      Singlet-A      5.0113 eV  247.41 nm  f=0.3430  <S**2>=0.000
      42 -> 44         0.11475
      43 -> 44         0.67287
      43 -> 45        -0.11722

 Excited State   8:      Singlet-A      5.6777 eV  218.37 nm  f=0.0407  <S**2>=0.000
      41 -> 45        -0.35847
      42 -> 44         0.46801
      43 -> 45         0.38214

 Excited State   9:      Triplet-A      5.8057 eV  213.55 nm  f=0.0000  <S**2>=2.000
      41 -> 44         0.44536
      41 -> 46        -0.11349
      43 -> 44        -0.14538
      43 -> 46         0.49676

 Excited State  10:      Triplet-A      5.8630 eV  211.47 nm  f=0.0000  <S**2>=2.000
      35 -> 45         0.10624
      41 -> 45         0.64713
      43 -> 45        -0.23242

 Excited State  11:      Singlet-A      5.9737 eV  207.55 nm  f=0.0137  <S**2>=0.000
      41 -> 44         0.59609
      42 -> 45         0.17611
      43 -> 46         0.30406

 Excited State  12:      Triplet-A      6.2794 eV  197.45 nm  f=0.0000  <S**2>=2.000
      36 -> 44        -0.12133
      40 -> 44         0.65378
      40 -> 46         0.13748

 Excited State  13:      Singlet-A      6.4210 eV  193.09 nm  f=0.2446  <S**2>=0.000
      42 -> 45         0.52043
      43 -> 46        -0.43023

 Excited State  14:      Singlet-A      6.5318 eV  189.82 nm  f=0.0072  <S**2>=0.000
      40 -> 44         0.61952
      40 -> 46         0.10519
      41 -> 45        -0.18294
      42 -> 44        -0.11208
      42 -> 46        -0.13727
      43 -> 46        -0.12579

 Excited State  15:      Triplet-A      6.5628 eV  188.92 nm  f=0.0000  <S**2>=2.000
      35 -> 44        -0.10208
      36 -> 44         0.13921
      37 -> 44        -0.21728
      38 -> 44         0.10900
      39 -> 44         0.58234
      41 -> 46         0.17407

 Excited State  16:      Singlet-A      6.6115 eV  187.53 nm  f=0.0987  <S**2>=0.000
      40 -> 44         0.24051
      41 -> 45         0.46518
      42 -> 44         0.28915
      42 -> 46         0.33047

 Excited State  17:      Triplet-A      6.7135 eV  184.68 nm  f=0.0000  <S**2>=2.000
      35 -> 44        -0.24166
      37 -> 44         0.20082
      39 -> 44        -0.13881
      41 -> 46         0.41008
      42 -> 46         0.34212
      43 -> 46         0.10587

 Excited State  18:      Triplet-A      6.7699 eV  183.14 nm  f=0.0000  <S**2>=2.000
      35 -> 44         0.13938
      35 -> 45        -0.17782
      37 -> 44        -0.15388
      41 -> 46        -0.29046
      42 -> 44         0.10485
      42 -> 46         0.48730

 Excited State  19:      Singlet-A      6.7910 eV  182.57 nm  f=0.0409  <S**2>=0.000
      37 -> 44        -0.22000
      39 -> 44         0.57099
      42 -> 45        -0.17960
      43 -> 46        -0.16083
      43 -> 47        -0.13065

 Excited State  20:      Triplet-A      6.7925 eV  182.53 nm  f=0.0000  <S**2>=2.000
      41 -> 47        -0.11705
      43 -> 47         0.66551
      43 -> 51        -0.10016

 Excited State  21:      Singlet-A      6.8788 eV  180.24 nm  f=0.0707  <S**2>=0.000
      39 -> 44         0.22725
      41 -> 44        -0.11730
      42 -> 45         0.16060
      43 -> 46         0.14178
      43 -> 47         0.58543

 Excited State  22:      Triplet-A      6.9357 eV  178.76 nm  f=0.0000  <S**2>=2.000
      36 -> 44        -0.10497
      36 -> 45         0.14312
      37 -> 44        -0.17671
      37 -> 45         0.47049
      39 -> 45        -0.13880
      40 -> 45        -0.37639
      42 -> 46         0.15165

 Excited State  23:      Triplet-A      6.9584 eV  178.18 nm  f=0.0000  <S**2>=2.000
      35 -> 44         0.15293
      36 -> 44         0.13029
      37 -> 44         0.51772
      37 -> 45         0.16351
      38 -> 44        -0.11051
      39 -> 44         0.20607
      39 -> 46         0.13353
      40 -> 45        -0.11246
      40 -> 46         0.15752

 Excited State  24:      Triplet-A      7.0483 eV  175.91 nm  f=0.0000  <S**2>=2.000
      36 -> 45         0.41142
      37 -> 45        -0.26118
      39 -> 45         0.37489
      40 -> 45        -0.33060

 Excited State  25:      Singlet-A      7.1036 eV  174.54 nm  f=0.1568  <S**2>=0.000
      37 -> 44        -0.16653
      38 -> 44         0.15427
      39 -> 44        -0.21971
      40 -> 44        -0.10090
      40 -> 45         0.19146
      41 -> 44         0.22882
      42 -> 45        -0.25222
      43 -> 46        -0.28498
      43 -> 47         0.28784
      43 -> 48        -0.11926

 Excited State  26:      Singlet-A      7.1602 eV  173.16 nm  f=0.0500  <S**2>=0.000
      36 -> 45         0.15714
      37 -> 44         0.52104
      39 -> 44         0.10224
      40 -> 45        -0.21368
      41 -> 44         0.14148
      42 -> 45        -0.13454
      42 -> 46         0.10942
      43 -> 46        -0.16117
      43 -> 47         0.12521

 Excited State  27:      Singlet-A      7.1861 eV  172.53 nm  f=0.0026  <S**2>=0.000
      36 -> 45        -0.21876
      37 -> 44         0.31097
      37 -> 45        -0.22841
      39 -> 44         0.10478
      40 -> 45         0.49507
      42 -> 46        -0.13982

 Excited State  28:      Singlet-A      7.3086 eV  169.64 nm  f=0.0082  <S**2>=0.000
      36 -> 45        -0.23941
      37 -> 45         0.44988
      39 -> 45        -0.44258
      42 -> 46         0.13225

 Excited State  29:      Singlet-A      7.3255 eV  169.25 nm  f=0.0046  <S**2>=0.000
      36 -> 44        -0.11105
      38 -> 44         0.52482
      38 -> 46         0.14377
      43 -> 48         0.38898

 Excited State  30:      Singlet-A      7.3736 eV  168.15 nm  f=0.0341  <S**2>=0.000
      36 -> 44         0.11878
      38 -> 44        -0.33609
      41 -> 44         0.12135
      41 -> 47        -0.12459
      42 -> 45        -0.12661
      43 -> 46        -0.10993
      43 -> 48         0.50577

 The electronic state is 1-A.
 Alpha  occ. eigenvalues --   -9.99485  -9.98902  -9.98853  -9.98815  -9.98764
 Alpha  occ. eigenvalues --   -9.98752  -9.98742  -9.98733  -9.98630  -9.98383
 Alpha  occ. eigenvalues --   -9.98351  -9.98048  -0.86308  -0.83851  -0.78040
 Alpha  occ. eigenvalues --   -0.75601  -0.74836  -0.72684  -0.64675  -0.63545
 Alpha  occ. eigenvalues --   -0.61286  -0.60154  -0.55418  -0.53507  -0.50806
 Alpha  occ. eigenvalues --   -0.49003  -0.48382  -0.46572  -0.46194  -0.45030
 Alpha  occ. eigenvalues --   -0.44495  -0.43547  -0.42201  -0.41489  -0.40637
 Alpha  occ. eigenvalues --   -0.38561  -0.37763  -0.36511  -0.35605  -0.34687
 Alpha  occ. eigenvalues --   -0.31950  -0.30287  -0.26886
 Alpha virt. eigenvalues --    0.01917   0.03692   0.08126   0.10541   0.11823
 Alpha virt. eigenvalues --    0.13425   0.13783   0.15646   0.16229   0.17366
 Alpha virt. eigenvalues --    0.18234   0.18493   0.18744   0.19409   0.20128

 Mulliken charges:
               1
     1  C   -0.122110
     2  C   -0.076657
     3  C    0.067519
     4  C   -0.034575
     5  C    0.001676
     6  C    0.005510
     7  C    0.004090
     8  C   -0.028000
     9  C    0.056979
    10  C   -0.028533
    11  C   -0.025449
    12  C    0.044609
    13  H   -0.000722
    14  H   -0.012765
    15  H   -0.004624
    16  H   -0.002915
    17  H   -0.004059
    18  H   -0.010523
    19  H    0.028440
    20  H    0.022589
    21  H    0.019947
    22  H    0.014600
    23  H    0.019964
    24  H    0.014856
    25  H    0.027857
    26  H    0.022294
 Sum of Mulliken charges =  -0.00000

 Dipole moment (field-independent basis, Debye):
    X=             -0.5543    Y=              0.0989    Z=              0.0551  Tot=              0.5657
 Quadrupole moment (field-independent basis, Debye-Ang):
   XX=            -67.5187   YY=            -68.5149   ZZ=            -75.3010
   XY=              0.1925   XZ=              0.1652   YZ=             -1.1920

 Normal termination of Gaussian 16 at Tue May 10 16:42:47 2022.
