 Gaussian 16, Revision A.03,
 Gaussian 16:  ES64L-G16RevA.03 25-Dec-2016

 ----------------------------------------------------------------------
 #P LC-wHPBE/Def2SVP iop(3/107=0156500000, 3/108=0156500000) td=(50-50,
 nstates=15)
 ----------------------------------------------------------------------

 -------
 H10 C14
 -------
 Symbolic Z-matrix:
 Charge =  0 Multiplicity = 1

                         Standard orientation:
 ---------------------------------------------------------------------
 Center     Atomic      Atomic             Coordinates (Angstroms)
 Number     Number       Type             X           Y           Z
 ---------------------------------------------------------------------
      1          6           0        3.676656   -0.714935    0.000000
      2          6           0        3.676690    0.714834    0.000000
      3          6           0        2.489464    1.411883    0.000000
      4          6           0        1.229278    0.724045    0.000000
      5          6           0        0.000004    1.408277    0.000000
      6          6           0       -1.229396    0.724084    0.000000
      7          6           0       -2.489417    1.411907    0.000000
      8          6           0       -3.676677    0.714716    0.000000
      9          6           0       -3.676682   -0.714835    0.000000
     10          6           0       -2.489285   -1.411843    0.000000
     11          6           0       -1.229259   -0.724008    0.000000
     12          6           0        0.000048   -1.408328    0.000000
     13          6           0        1.229279   -0.723861    0.000000
     14          6           0        2.489347   -1.411893    0.000000
     15          1           0        4.634018   -1.256556    0.000000
     16          1           0        4.634033    1.256485    0.000000
     17          1           0        2.486862    2.512482    0.000000
     18          1           0       -0.000015    2.509553    0.000000
     19          1           0       -2.486992    2.512476    0.000000
     20          1           0       -4.633997    1.256467    0.000000
     21          1           0       -4.633907   -1.256670    0.000000
     22          1           0       -2.487009   -2.512449   -0.000001
     23          1           0       -0.000053   -2.509552    0.000000
     24          1           0        2.486753   -2.512488    0.000000
 ---------------------------------------------------------------------

 SCF Done:  E(RLC-wHPBE) =  -538.605976253     A.U. after   14 cycles

 Excitation energies and oscillator strengths:

 Excited State   1:      Triplet-A      1.8286 eV  678.03 nm  f=0.0000  <S**2>=2.000
      45 -> 50         0.13211
      47 -> 48         0.69489
      47 <- 48         0.12474
 This state for optimization and/or second-order correction.
 Total Energy, E(TD-HF/TD-DFT) =  -538.538776400
 Copying the excited state density for this state as the 1-particle RhoCI density.

 Excited State   2:      Triplet-A      3.2623 eV  380.05 nm  f=0.0000  <S**2>=2.000
      44 -> 50         0.11497
      45 -> 48         0.51301
      45 -> 51        -0.10692
      47 -> 50         0.45732

 Excited State   3:      Singlet-A      3.2901 eV  376.85 nm  f=0.0642  <S**2>=0.000
      47 -> 48         0.70192

 Excited State   4:      Triplet-A      3.4863 eV  355.63 nm  f=0.0000  <S**2>=2.000
      46 -> 48         0.61767
      47 -> 49         0.32423

 Excited State   5:      Triplet-A      3.6476 eV  339.91 nm  f=0.0000  <S**2>=2.000
      46 -> 48        -0.32688
      47 -> 49         0.61908

 Excited State   6:      Singlet-A      3.8305 eV  323.68 nm  f=0.0008  <S**2>=0.000
      46 -> 48         0.50766
      47 -> 49        -0.48501

 Excited State   7:      Triplet-A      4.0841 eV  303.57 nm  f=0.0000  <S**2>=2.000
      44 -> 48         0.44797
      45 -> 50         0.30357
      46 -> 49         0.10754
      47 -> 51        -0.43888

 Excited State   8:      Triplet-A      4.4175 eV  280.66 nm  f=0.0000  <S**2>=2.000
      43 -> 52        -0.11573
      46 -> 49         0.67132
      47 -> 48        -0.10893

 Excited State   9:      Triplet-A      4.5957 eV  269.78 nm  f=0.0000  <S**2>=2.000
      43 -> 48         0.45811
      45 -> 49        -0.27983
      46 -> 50        -0.32536
      47 -> 52        -0.30318

 Excited State  10:      Triplet-A      4.6895 eV  264.39 nm  f=0.0000  <S**2>=2.000
      45 -> 48        -0.46413
      45 -> 51        -0.10413
      47 -> 50         0.51637

 Excited State  11:      Singlet-A      4.7088 eV  263.30 nm  f=0.0000  <S**2>=0.000
      45 -> 48         0.63437
      45 -> 51         0.11227
      47 -> 50        -0.28592

 Excited State  12:      Singlet-A      4.8950 eV  253.29 nm  f=0.0000  <S**2>=0.000
      44 -> 50        -0.10608
      45 -> 48         0.28476
      47 -> 50         0.63292

 Excited State  13:      Triplet-A      5.2107 eV  237.94 nm  f=0.0000  <S**2>=2.000
      43 -> 48         0.27622
      45 -> 49         0.52185
      46 -> 50        -0.28879
      47 -> 52         0.24264

 Excited State  14:      Singlet-A      5.2234 eV  237.36 nm  f=1.9023  <S**2>=0.000
      46 -> 48         0.48668
      47 -> 49         0.51075

 Excited State  15:      Triplet-A      5.3063 eV  233.65 nm  f=0.0000  <S**2>=2.000
      44 -> 48         0.49197
      47 -> 51         0.50719

 Excited State  16:      Singlet-A      5.3479 eV  231.84 nm  f=0.0000  <S**2>=0.000
      44 -> 48         0.48151
      47 -> 51         0.51740

 Excited State  17:      Singlet-A      5.4191 eV  228.79 nm  f=0.0000  <S**2>=0.000
      43 -> 48         0.34074
      45 -> 49         0.43355
      46 -> 50        -0.37319
      47 -> 52         0.22805

 Excited State  18:      Triplet-A      5.5052 eV  225.21 nm  f=0.0000  <S**2>=2.000
      40 -> 50        -0.10787
      42 -> 48         0.69311

 Excited State  19:      Triplet-A      5.6091 eV  221.04 nm  f=0.0000  <S**2>=2.000
      43 -> 48         0.31230
      43 -> 51         0.12946
      45 -> 49         0.21334
      46 -> 50         0.49657
      47 -> 52        -0.24724

 Excited State  20:      Triplet-A      5.6324 eV  220.13 nm  f=0.0000  <S**2>=2.000
      39 -> 48         0.29075
      43 -> 50         0.27709
      44 -> 49        -0.32195
      45 -> 52        -0.20452
      46 -> 51         0.41341
      47 -> 60        -0.14610

 Excited State  21:      Singlet-A      5.6645 eV  218.88 nm  f=0.0001  <S**2>=0.000
      42 -> 48         0.69703

 Excited State  22:      Triplet-A      5.7526 eV  215.53 nm  f=0.0000  <S**2>=2.000
      38 -> 50         0.11125
      41 -> 48         0.69300

 Excited State  23:      Triplet-A      5.8730 eV  211.11 nm  f=0.0000  <S**2>=2.000
      43 -> 49         0.51334
      44 -> 50        -0.15506
      45 -> 51         0.16001
      46 -> 52        -0.39779

 Excited State  24:      Singlet-A      5.9166 eV  209.55 nm  f=0.1132  <S**2>=0.000
      45 -> 50         0.15371
      46 -> 49         0.67892

 Excited State  25:      Singlet-A      5.9664 eV  207.80 nm  f=0.0000  <S**2>=0.000
      41 -> 48         0.69718

 Excited State  26:      Singlet-A      6.1722 eV  200.87 nm  f=0.0000  <S**2>=0.000
      43 -> 48         0.52191
      45 -> 49        -0.16534
      46 -> 50         0.39157
      47 -> 52         0.18819

 Excited State  27:      Singlet-A      6.1921 eV  200.23 nm  f=0.0033  <S**2>=0.000
      44 -> 48         0.51408
      47 -> 51        -0.47607

 Excited State  28:      Singlet-A      6.2989 eV  196.83 nm  f=0.0000  <S**2>=0.000
      40 -> 48         0.67943
      42 -> 50        -0.17687

 Excited State  29:      Singlet-A      6.4536 eV  192.12 nm  f=0.0002  <S**2>=0.000
      43 -> 50         0.16353
      44 -> 49         0.45437
      45 -> 52         0.13764
      46 -> 51         0.48861

 Excited State  30:      Singlet-A      6.4680 eV  191.69 nm  f=0.0000  <S**2>=0.000
      45 -> 49         0.44767
      46 -> 50         0.31552
      47 -> 52        -0.43323

 The electronic state is 1-A.
 Alpha  occ. eigenvalues --  -10.00073 -10.00072 -10.00069 -10.00065  -9.99443
 Alpha  occ. eigenvalues --   -9.99439  -9.99438  -9.99437  -9.99437  -9.99420
 Alpha  occ. eigenvalues --   -9.99412  -9.99411  -9.99410  -9.99409  -0.88666
 Alpha  occ. eigenvalues --   -0.85717  -0.81103  -0.79314  -0.76270  -0.75164
 Alpha  occ. eigenvalues --   -0.71687  -0.66551  -0.63816  -0.62577  -0.61411
 Alpha  occ. eigenvalues --   -0.56516  -0.55533  -0.53781  -0.49712  -0.49361
 Alpha  occ. eigenvalues --   -0.48350  -0.48345  -0.45946  -0.44946  -0.44897
 Alpha  occ. eigenvalues --   -0.44422  -0.42638  -0.41441  -0.41388  -0.38563
 Alpha  occ. eigenvalues --   -0.37497  -0.36617  -0.35836  -0.35306  -0.31312
 Alpha  occ. eigenvalues --   -0.29552  -0.25008
 Alpha virt. eigenvalues --   -0.02855   0.01970   0.04003   0.07411   0.09746
 Alpha virt. eigenvalues --    0.11476   0.11802   0.12432   0.15384   0.15427
 Alpha virt. eigenvalues --    0.17736   0.18021   0.18077   0.19517   0.19722

 Mulliken charges:
               1
     1  C    0.007778
     2  C    0.007798
     3  C   -0.013711
     4  C    0.075027
     5  C   -0.079698
     6  C    0.074967
     7  C   -0.013762
     8  C    0.007795
     9  C    0.007839
    10  C   -0.013895
    11  C    0.074981
    12  C   -0.079600
    13  C    0.074857
    14  C   -0.013713
    15  H   -0.000715
    16  H   -0.000715
    17  H   -0.014608
    18  H   -0.027683
    19  H   -0.014619
    20  H   -0.000713
    21  H   -0.000730
    22  H   -0.014601
    23  H   -0.027682
    24  H   -0.014597
 Sum of Mulliken charges =  -0.00000

 Dipole moment (field-independent basis, Debye):
    X=             -0.0001    Y=             -0.0003    Z=             -0.0000  Tot=              0.0003
 Quadrupole moment (field-independent basis, Debye-Ang):
   XX=            -70.8004   YY=            -71.5654   ZZ=            -87.0561
   XY=              0.0004   XZ=              0.0000   YZ=              0.0000

 Normal termination of Gaussian 16 at Tue May 10 16:59:32 2022.
