 Gaussian 16, Revision A.03,
 Gaussian 16:  ES64L-G16RevA.03 25-Dec-2016

 ----------------------------------------------------------------------
 #P LC-wHPBE/Def2SVP iop(3/107=0301200000, 3/108=0301200000) td=(50-50,
 nstates=15)
 ----------------------------------------------------------------------

 -----
 H6 C6
 -----
 Symbolic Z-matrix:
 Charge =  0 Multiplicity = 1

                         Standard orientation:
 ---------------------------------------------------------------------
 Center     Atomic      Atomic             Coordinates (Angstroms)
 Number     Number       Type             X           Y           Z
 ---------------------------------------------------------------------
      1          6           0       -1.208540   -0.697722    0.000000
      2          6           0        0.000186   -1.395502    0.000000
      3          6           0        1.208578   -0.697822    0.000000
      4          6           0        1.208479    0.697917    0.000000
      5          6           0        0.000000    1.395433    0.000000
      6          6           0       -1.208732    0.697641    0.000000
      7          1           0       -2.157769   -1.246490    0.000000
      8          1           0       -0.000047   -2.491928    0.000000
      9          1           0        2.158429   -1.245493    0.000000
     10          1           0        2.157987    1.246215    0.000000
     11          1           0       -0.000348    2.491902    0.000000
     12          1           0       -2.158082    1.246136    0.000000
 ---------------------------------------------------------------------

 SCF Done:  E(RLC-wHPBE) =  -231.891584748     A.U. after   10 cycles

 Excitation energies and oscillator strengths:

 Excited State   1:      Triplet-A'     3.5051 eV  353.73 nm  f=0.0000  <S**2>=2.000
      17 -> 29         0.14375
      20 -> 22        -0.22677
      20 -> 23         0.45308
      21 -> 22         0.45333
      21 -> 23         0.22671
      20 <- 23         0.11673
      21 <- 22         0.11676
 This state for optimization and/or second-order correction.
 Total Energy, E(TD-HF/TD-DFT) =  -231.762775755
 Copying the excited state density for this state as the 1-particle RhoCI density.

 Excited State   2:      Triplet-A'     4.8216 eV  257.14 nm  f=0.0000  <S**2>=2.000
      20 -> 22         0.48844
      20 -> 23         0.10852
      21 -> 22        -0.10819
      21 -> 23         0.48804

 Excited State   3:      Triplet-A'     4.8217 eV  257.14 nm  f=0.0000  <S**2>=2.000
      20 -> 22         0.10870
      20 -> 23        -0.48820
      21 -> 22         0.48828
      21 -> 23         0.10801

 Excited State   4:      Triplet-A'     5.1362 eV  241.39 nm  f=0.0000  <S**2>=2.000
      20 -> 22        -0.44863
      20 -> 23        -0.22487
      21 -> 22        -0.22435
      21 -> 23         0.44926

 Excited State   5:      Singlet-A'     5.5249 eV  224.41 nm  f=0.0000  <S**2>=0.000
      20 -> 22         0.44758
      20 -> 23         0.22385
      21 -> 22         0.22394
      21 -> 23        -0.44748

 Excited State   6:      Singlet-A'     6.4552 eV  192.07 nm  f=0.0000  <S**2>=0.000
      20 -> 22        -0.22274
      20 -> 23         0.44502
      21 -> 22         0.44530
      21 -> 23         0.22269

 Excited State   7:      Singlet-A'     7.3834 eV  167.92 nm  f=0.6009  <S**2>=0.000
      20 -> 22        -0.11931
      20 -> 23         0.48391
      21 -> 22        -0.48364
      21 -> 23        -0.11929

 Excited State   8:      Singlet-A'     7.3836 eV  167.92 nm  f=0.6010  <S**2>=0.000
      20 -> 22         0.48372
      20 -> 23         0.11933
      21 -> 22        -0.11927
      21 -> 23         0.48383

 Excited State   9:      Triplet-A"     7.4780 eV  165.80 nm  f=0.0000  <S**2>=2.000
      18 -> 22         0.49495
      19 -> 23         0.49484

 Excited State  10:      Triplet-A"     7.5715 eV  163.75 nm  f=0.0000  <S**2>=2.000
      18 -> 22         0.18499
      18 -> 23         0.44444
      19 -> 22         0.47199
      19 -> 23        -0.18357

 Excited State  11:      Triplet-A"     7.5715 eV  163.75 nm  f=0.0000  <S**2>=2.000
      18 -> 22        -0.45804
      18 -> 23         0.17790
      19 -> 22         0.19045
      19 -> 23         0.45880

 Excited State  12:      Triplet-A"     7.5886 eV  163.38 nm  f=0.0000  <S**2>=2.000
      18 -> 23         0.50758
      19 -> 22        -0.47723

 Excited State  13:      Triplet-A'     7.5888 eV  163.38 nm  f=0.0000  <S**2>=2.000
      17 -> 22         0.60134
      20 -> 29        -0.15567
      21 -> 29         0.33510

 Excited State  14:      Triplet-A'     7.5892 eV  163.37 nm  f=0.0000  <S**2>=2.000
      17 -> 23         0.60131
      20 -> 29         0.33513
      21 -> 29         0.15570

 Excited State  15:      Singlet-A"     7.8593 eV  157.76 nm  f=0.0000  <S**2>=0.000
      18 -> 23        -0.49266
      19 -> 22         0.49881

 Excited State  16:      Singlet-A"     7.9091 eV  156.76 nm  f=0.0090  <S**2>=0.000
      18 -> 22         0.49679
      19 -> 23         0.49643

 Excited State  17:      Singlet-A"     7.9472 eV  156.01 nm  f=0.0000  <S**2>=0.000
      18 -> 22        -0.32843
      18 -> 23         0.37485
      19 -> 22         0.37009
      19 -> 23         0.32897

 Excited State  18:      Singlet-A"     7.9472 eV  156.01 nm  f=0.0000  <S**2>=0.000
      18 -> 22         0.37249
      18 -> 23         0.33066
      19 -> 22         0.32673
      19 -> 23        -0.37247

 Excited State  19:      Triplet-A"     8.3002 eV  149.38 nm  f=0.0000  <S**2>=2.000
      17 -> 25         0.10539
      20 -> 24         0.33989
      21 -> 24         0.59752

 Excited State  20:      Triplet-A"     8.3004 eV  149.37 nm  f=0.0000  <S**2>=2.000
      17 -> 26         0.10537
      20 -> 24         0.59751
      21 -> 24        -0.33989

 Excited State  21:      Singlet-A"     8.4942 eV  145.96 nm  f=0.0000  <S**2>=0.000
      20 -> 24         0.29163
      21 -> 24         0.63043

 Excited State  22:      Singlet-A"     8.4944 eV  145.96 nm  f=0.0000  <S**2>=0.000
      20 -> 24         0.63043
      21 -> 24        -0.29164

 Excited State  23:      Triplet-A"     9.1503 eV  135.50 nm  f=0.0000  <S**2>=2.000
      17 -> 24         0.25315
      20 -> 25         0.38728
      20 -> 26         0.25448
      21 -> 25         0.25473
      21 -> 26        -0.38711

 Excited State  24:      Singlet-A"     9.4513 eV  131.18 nm  f=0.0070  <S**2>=0.000
      17 -> 24         0.23294
      20 -> 25         0.39270
      20 -> 26         0.25795
      21 -> 25         0.25832
      21 -> 26        -0.39245

 Excited State  25:      Triplet-A"     9.4604 eV  131.06 nm  f=0.0000  <S**2>=2.000
      13 -> 23        -0.16774
      14 -> 22         0.19710
      15 -> 22         0.29572
      15 -> 23         0.30757
      16 -> 22         0.30799
      16 -> 23        -0.29568
      19 -> 29         0.25078

 Excited State  26:      Triplet-A"     9.4606 eV  131.05 nm  f=0.0000  <S**2>=2.000
      13 -> 22        -0.16793
      14 -> 23        -0.19705
      15 -> 22        -0.30492
      15 -> 23         0.29476
      16 -> 22         0.29663
      16 -> 23         0.31059
      18 -> 29         0.25075

 Excited State  27:      Singlet-A"     9.8098 eV  126.39 nm  f=0.0000  <S**2>=0.000
      20 -> 25         0.20716
      20 -> 26        -0.44433
      21 -> 25         0.44459
      21 -> 26         0.20784

 Excited State  28:      Singlet-A"     9.8099 eV  126.39 nm  f=0.0000  <S**2>=0.000
      20 -> 25         0.44454
      20 -> 26         0.20730
      21 -> 25        -0.20769
      21 -> 26         0.44437

 Excited State  29:      Singlet-A"     9.9597 eV  124.49 nm  f=0.0000  <S**2>=0.000
      15 -> 22         0.47819
      15 -> 23        -0.11746
      16 -> 22         0.12333
      16 -> 23         0.48201

 Excited State  30:      Singlet-A"     9.9845 eV  124.18 nm  f=0.0000  <S**2>=0.000
      14 -> 23        -0.11643
      15 -> 22        -0.21321
      15 -> 23         0.42127
      16 -> 22         0.42189
      16 -> 23         0.20552
      18 -> 29         0.16571

 The electronic state is 1-A'.
 Alpha  occ. eigenvalues --  -10.07057 -10.07051 -10.07051 -10.07027 -10.07026
 Alpha  occ. eigenvalues --  -10.07026  -0.94614  -0.83642  -0.83641  -0.69411
 Alpha  occ. eigenvalues --   -0.69408  -0.62233  -0.54866  -0.54262  -0.51366
 Alpha  occ. eigenvalues --   -0.51363  -0.47772  -0.43202  -0.43200  -0.34614
 Alpha  occ. eigenvalues --   -0.34614
 Alpha virt. eigenvalues --    0.06693   0.06695   0.14093   0.18473   0.18474
 Alpha virt. eigenvalues --    0.22431   0.22433   0.24149   0.24480   0.37483
 Alpha virt. eigenvalues --    0.37484   0.38563   0.38565   0.45588   0.50158

 Mulliken charges:
               1
     1  C   -0.012927
     2  C   -0.012872
     3  C   -0.012903
     4  C   -0.012916
     5  C   -0.012995
     6  C   -0.012832
     7  H    0.012910
     8  H    0.012904
     9  H    0.012909
    10  H    0.012909
    11  H    0.012914
    12  H    0.012899
 Sum of Mulliken charges =  -0.00000

 Dipole moment (field-independent basis, Debye):
    X=              0.0001    Y=              0.0001    Z=              0.0000  Tot=              0.0001
 Quadrupole moment (field-independent basis, Debye-Ang):
   XX=            -31.6840   YY=            -31.6838   ZZ=            -39.1120
   XY=              0.0002   XZ=              0.0000   YZ=              0.0000

 Normal termination of Gaussian 16 at Wed May 11 15:50:29 2022.
