 Gaussian 16, Revision A.03,
 Gaussian 16:  ES64L-G16RevA.03 25-Dec-2016

 ----------------------------------------------------------------------
 #P LC-wHPBE/Def2SVP iop(3/107=0319800000, 3/108=0319800000) td=(50-50,
 nstates=15)
 ----------------------------------------------------------------------

 -----------
 H5 C6 N1 O2
 -----------
 Symbolic Z-matrix:
 Charge =  0 Multiplicity = 1

                         Standard orientation:
 ---------------------------------------------------------------------
 Center     Atomic      Atomic             Coordinates (Angstroms)
 Number     Number       Type             X           Y           Z
 ---------------------------------------------------------------------
      1          8           0       -2.281674    1.076156    0.000014
      2          7           0       -1.723016   -0.000001   -0.000001
      3          8           0       -2.281564   -1.076203   -0.000013
      4          6           0       -0.242032    0.000023   -0.000000
      5          6           0        0.425722   -1.218594    0.000005
      6          6           0        1.817822   -1.210638    0.000005
      7          6           0        2.511315    0.000006   -0.000000
      8          6           0        1.817822    1.210651   -0.000005
      9          6           0        0.425739    1.218622   -0.000005
     10          1           0       -0.154707   -2.144805    0.000008
     11          1           0        2.365704   -2.158702    0.000010
     12          1           0        3.606679   -0.000114   -0.000000
     13          1           0        2.365671    2.158727   -0.000010
     14          1           0       -0.154653    2.144863   -0.000008
 ---------------------------------------------------------------------

 SCF Done:  E(RLC-wHPBE) =  -436.118327909     A.U. after   15 cycles

 Excitation energies and oscillator strengths:

 Excited State   1:      Triplet-A      2.9333 eV  422.67 nm  f=0.0000  <S**2>=2.000
      28 -> 33         0.64267
      28 -> 35         0.31879
      32 -> 33         0.12939
      28 <- 33         0.15863
 This state for optimization and/or second-order correction.
 Total Energy, E(TD-HF/TD-DFT) =  -436.010530073
 Copying the excited state density for this state as the 1-particle RhoCI density.

 Excited State   2:      Triplet-A      3.2777 eV  378.26 nm  f=0.0000  <S**2>=2.000
      25 -> 41        -0.12614
      31 -> 33         0.50995
      31 -> 35        -0.25834
      32 -> 34        -0.42901
      31 <- 33         0.10763
      32 <- 34        -0.12974

 Excited State   3:      Triplet-A      3.4099 eV  363.60 nm  f=0.0000  <S**2>=2.000
      30 -> 33         0.64843
      30 -> 35         0.28008

 Excited State   4:      Triplet-A      3.8968 eV  318.17 nm  f=0.0000  <S**2>=2.000
      29 -> 33         0.65393
      29 -> 35         0.26110

 Excited State   5:      Singlet-A      4.0276 eV  307.83 nm  f=0.0000  <S**2>=0.000
      30 -> 33         0.65789
      30 -> 35         0.25657

 Excited State   6:      Triplet-A      4.3523 eV  284.87 nm  f=0.0000  <S**2>=2.000
      28 -> 33        -0.11590
      31 -> 34        -0.10297
      32 -> 33         0.63565
      32 -> 35        -0.26697

 Excited State   7:      Singlet-A      4.4888 eV  276.21 nm  f=0.0001  <S**2>=0.000
      29 -> 33         0.66056
      29 -> 35         0.24355

 Excited State   8:      Triplet-A      4.6207 eV  268.32 nm  f=0.0000  <S**2>=2.000
      31 -> 33         0.41670
      31 -> 35        -0.10066
      32 -> 34         0.55809

 Excited State   9:      Singlet-A      5.1756 eV  239.56 nm  f=0.0141  <S**2>=0.000
      31 -> 34         0.33915
      32 -> 33         0.59819
      32 -> 35        -0.16158

 Excited State  10:      Triplet-A      5.2216 eV  237.44 nm  f=0.0000  <S**2>=2.000
      31 -> 34         0.69814
      32 -> 33         0.10593

 Excited State  11:      Singlet-A      5.6137 eV  220.86 nm  f=0.1964  <S**2>=0.000
      31 -> 33         0.67827
      32 -> 34        -0.15513

 Excited State  12:      Triplet-A      6.3279 eV  195.93 nm  f=0.0000  <S**2>=2.000
      25 -> 33         0.33350
      31 -> 33         0.19953
      31 -> 35         0.57092

 Excited State  13:      Singlet-A      6.5897 eV  188.15 nm  f=0.0095  <S**2>=0.000
      28 -> 33         0.44472
      31 -> 34        -0.42301
      32 -> 33         0.31109
      32 -> 35         0.15232

 Excited State  14:      Singlet-A      6.9227 eV  179.10 nm  f=0.3147  <S**2>=0.000
      31 -> 33         0.13447
      31 -> 35         0.23071
      32 -> 34         0.64242

 Excited State  15:      Singlet-A      6.9563 eV  178.23 nm  f=0.2535  <S**2>=0.000
      28 -> 33         0.53615
      31 -> 34         0.34900
      32 -> 33        -0.21431
      32 -> 35        -0.19342

 Excited State  16:      Triplet-A      6.9996 eV  177.13 nm  f=0.0000  <S**2>=2.000
      27 -> 33         0.65607
      27 -> 35        -0.20572

 Excited State  17:      Triplet-A      7.0338 eV  176.27 nm  f=0.0000  <S**2>=2.000
      25 -> 34        -0.29784
      32 -> 33         0.19057
      32 -> 35         0.57049
      32 -> 41        -0.19883

 Excited State  18:      Singlet-A      7.2470 eV  171.08 nm  f=0.0000  <S**2>=0.000
      27 -> 33         0.66951
      27 -> 35        -0.17923

 Excited State  19:      Triplet-A      7.4267 eV  166.94 nm  f=0.0000  <S**2>=2.000
      26 -> 33         0.55727
      26 -> 35        -0.22707
      27 -> 34        -0.20825
      29 -> 33        -0.11453
      29 -> 35         0.21812
      30 -> 34        -0.12993

 Excited State  20:      Triplet-A      7.6168 eV  162.78 nm  f=0.0000  <S**2>=2.000
      26 -> 33         0.13883
      27 -> 34         0.42235
      29 -> 35         0.21131
      30 -> 34         0.47167

 Excited State  21:      Triplet-A      7.6751 eV  161.54 nm  f=0.0000  <S**2>=2.000
      26 -> 34        -0.29145
      29 -> 34         0.61031
      30 -> 35         0.13787

 Excited State  22:      Triplet-A      7.7129 eV  160.75 nm  f=0.0000  <S**2>=2.000
      27 -> 34         0.50981
      30 -> 34        -0.46312

 Excited State  23:      Singlet-A      7.7177 eV  160.65 nm  f=0.0007  <S**2>=0.000
      26 -> 33        -0.27348
      30 -> 34         0.62964

 Excited State  24:      Triplet-A      7.7506 eV  159.97 nm  f=0.0000  <S**2>=2.000
      25 -> 33         0.45652
      25 -> 35        -0.35360
      31 -> 33        -0.12881
      31 -> 35        -0.26191
      31 -> 41        -0.26397

 Excited State  25:      Singlet-A      7.7862 eV  159.24 nm  f=0.0011  <S**2>=0.000
      26 -> 33         0.48560
      26 -> 35        -0.17732
      29 -> 33        -0.14429
      29 -> 35         0.33962
      30 -> 34         0.28357

 Excited State  26:      Singlet-A      7.7975 eV  159.01 nm  f=0.0000  <S**2>=0.000
      26 -> 34        -0.17817
      29 -> 34         0.63638
      30 -> 35         0.20824

 Excited State  27:      Singlet-A      7.9637 eV  155.69 nm  f=0.0000  <S**2>=0.000
      26 -> 34         0.10165
      29 -> 34        -0.20807
      30 -> 33        -0.24205
      30 -> 35         0.59786
      30 -> 41         0.13840

 Excited State  28:      Singlet-A      7.9910 eV  155.16 nm  f=0.2150  <S**2>=0.000
      25 -> 33         0.16899
      31 -> 35         0.62950
      32 -> 34        -0.24025

 Excited State  29:      Singlet-A      8.0721 eV  153.60 nm  f=0.3800  <S**2>=0.000
      31 -> 34         0.28658
      32 -> 35         0.63776

 Excited State  30:      Singlet-A      8.0826 eV  153.40 nm  f=0.0049  <S**2>=0.000
      27 -> 34         0.69516

 The electronic state is 1-A.
 Alpha  occ. eigenvalues --  -18.96138 -18.96134 -14.40889 -10.14219 -10.11243
 Alpha  occ. eigenvalues --  -10.11240 -10.11097 -10.10893 -10.10892  -1.32475
 Alpha  occ. eigenvalues --   -1.14937  -0.99949  -0.91294  -0.87876  -0.80341
 Alpha  occ. eigenvalues --   -0.73788  -0.69784  -0.66564  -0.66026  -0.61425
 Alpha  occ. eigenvalues --   -0.61337  -0.57871  -0.56661  -0.55109  -0.51299
 Alpha  occ. eigenvalues --   -0.48782  -0.46826  -0.41223  -0.40750  -0.39219
 Alpha  occ. eigenvalues --   -0.38216  -0.37874
 Alpha virt. eigenvalues --   -0.01138   0.04134   0.07936   0.13210   0.17527
 Alpha virt. eigenvalues --    0.18739   0.22591   0.22844   0.22853   0.25647
 Alpha virt. eigenvalues --    0.34177   0.35251   0.35652   0.35935   0.38610

 Mulliken charges:
               1
     1  O   -0.219496
     2  N    0.212534
     3  O   -0.219492
     4  C    0.113313
     5  C   -0.021404
     6  C   -0.021107
     7  C    0.021856
     8  C   -0.021080
     9  C   -0.021417
    10  H    0.042092
    11  H    0.031058
    12  H    0.029996
    13  H    0.031056
    14  H    0.042089
 Sum of Mulliken charges =  -0.00000

 Dipole moment (field-independent basis, Debye):
    X=              4.2077    Y=             -0.0000    Z=             -0.0000  Tot=              4.2077
 Quadrupole moment (field-independent basis, Debye-Ang):
   XX=            -53.9147   YY=            -47.5391   ZZ=            -52.1119
   XY=             -0.0002   XZ=              0.0000   YZ=             -0.0001

 Normal termination of Gaussian 16 at Tue May 10 16:46:25 2022.
